HEADER
"PSFversion" "1.00"
"design" "(\"\" \"netlist\" \"schematic\" \"\")"
"simulator" "spectre"
"temperature" "25.0"
"host" ""
"date" "Nov  1 11:31:21 2023"
"title" ""
"analysisList" "()"
END
