HEADER
"PSFversion" "1.00"
"design" "(\"cad045\" \"NOR3XL\" \"schematic\" \"\")"
"simulator" "spectre"
"temperature" "27"
"host" ""
"date" "Oct 31 16:35:03 2023"
"title" ""
"analysisList" "()"
END
