HEADER
"PSFversion" "1.00"
"__NEXT_FILE__" "OR3X8"
