HEADER
"PSFversion" "1.00"
"mp2n mp1n mp0n" "gpdk045_pmos1v_spectre"
"mn0n mn1n mn2n" "gpdk045_nmos1v_spectre"
