HEADER
"PSFversion" "1.00"
"mn1n mn0n mn2n" "gpdk045_nmos1v_spectre"
"mp1n mp0n mp2n" "gpdk045_pmos1v_spectre"
