HEADER
"PSFversion" "1.00"
"Time Stamp" "Nov 21 14:32:45 2023"
TYPE
"variable" STRUCT(
"value" FLOAT DOUBLE
) PROP( "key" "element" )
VALUE
"cap" "variable" ( 10e-15 ) PROP( )
"slew_a" "variable" ( 10e-12 ) PROP( )
"slew_b" "variable" ( 10e-12 ) PROP( )
"VDD" "variable" ( 1.0 ) PROP( )
"skew_b" "variable" ( 950e-12 ) PROP( )
"temp" "variable" ( 25.0 ) PROP( )
END
