HEADER
"PSFversion" "1.00"
"C0n" "analogLib_cap_spectre"
"mn0n mn3n mn1n mn2n" "gpdk045_nmos1v_spectre"
"mp3n mp0n mp2n mp1n" "gpdk045_pmos1v_spectre"
