HEADER
"PSFversion" "1.00"
"design" "(\"cad045\" \"AND3X8\" \"schematic\" \"\")"
"simulator" "spectre"
"temperature" "27"
"host" ""
"date" "Oct 31 16:51:18 2023"
"title" ""
"analysisList" "()"
END
