HEADER
"PSFversion" "1.00"
"mn2n mn1n mn0n" "gpdk045_nmos1v_spectre"
"mp0n mp1n mp2n" "gpdk045_pmos1v_spectre"
