HEADER
"PSFversion" "1.00"
"Time Stamp" "Oct 31 16:50:42 2023"
TYPE
"variable" STRUCT(
"value" FLOAT DOUBLE
) PROP( "key" "element" )
VALUE
"temp" "variable" ( 27 ) PROP( )
END
