HEADER
"PSFversion" "1.00"
"design" "(\"cad045\" \"OR3X8\" \"schematic\" \"\")"
"simulator" "spectre"
"temperature" "27"
"host" ""
"date" "Oct 31 19:08:32 2023"
"title" ""
"analysisList" "()"
END
