HEADER
"PSFversion" "1.00"
"Time Stamp" "Oct 19 16:19:48 2023"
TYPE
"variable" STRUCT(
"value" FLOAT DOUBLE
) PROP( "key" "element" )
VALUE
"cap" "variable" ( 300e-15 ) PROP( )
"slew_a" "variable" ( 100e-12 ) PROP( )
"slew_b" "variable" ( 100e-12 ) PROP( )
"slew_c" "variable" ( 100e-12 ) PROP( )
"VDD" "variable" ( 1.2 ) PROP( )
"skew_b" "variable" ( 1e-9 ) PROP( )
"skew_c" "variable" ( 500e-12 ) PROP( )
"temp" "variable" ( 25.0 ) PROP( )
END
