HEADER
"PSFversion" "1.00"
"design" "(\"cad045\" \"NAND3XL\" \"schematic\" \"\")"
"simulator" "spectre"
"temperature" "27"
"host" ""
"date" "Oct 31 16:14:09 2023"
"title" ""
"analysisList" "()"
END
