HEADER
"PSFversion" "1.00"
"design" "(\"cad045\" \"NOR3X4\" \"schematic\" \"\")"
"simulator" "spectre"
"temperature" "27"
"host" ""
"date" "Oct 31 16:34:24 2023"
"title" ""
"analysisList" "()"
END
