HEADER
"PSFversion" "1.00"
"PM3n PM2n PM1n PM0n" "gpdk045_pmos1v_spectre"
"NM3n NM2n NM1n NM0n" "gpdk045_nmos1v_spectre"
"C0n" "analogLib_cap_spectre"
