HEADER
"PSFversion" "1.00"
"mn2n mn0n mn1n" "gpdk045_nmos1v_spectre"
"mp2n mp0n mp1n" "gpdk045_pmos1v_spectre"
