HEADER
"PSFversion" "1.00"
"design" "(\"cad045\" \"OR3XL\" \"schematic\" \"\")"
"simulator" "spectre"
"temperature" "27"
"host" ""
"date" "Oct 31 19:08:47 2023"
"title" ""
"analysisList" "()"
END
