HEADER
"PSFversion" "1.00"
"C0n" "analogLib_cap_spectre"
"mp0n mp1n mp2n" "gpdk045_pmos1v_spectre"
"mn0n mn1n mn2n" "gpdk045_nmos1v_spectre"
