HEADER
"PSFversion" "1.00"
"Time Stamp" "Oct 26 01:58:39 2023"
TYPE
"variable" STRUCT(
"value" FLOAT DOUBLE
) PROP( "key" "element" )
VALUE
"cap" "variable" ( 270e-15 ) PROP( )
"slew_a" "variable" ( 270e-12 ) PROP( )
"slew_b" "variable" ( 270e-12 ) PROP( )
"VDD" "variable" ( 1.0 ) PROP( )
"skew_b" "variable" ( 300e-12 ) PROP( )
"temp" "variable" ( 25.0 ) PROP( )
END
