HEADER
"PSFversion" "1.00"
"mn2n mn1n mn0n" "gpdk045_nmos1v_spectre"
"mp2n mp1n mp0n" "gpdk045_pmos1v_spectre"
"C0n" "analogLib_cap_spectre"
